   * xtb version 6.5.1 (fef0646) compiled by 'conda@b96dff2e9fd6' on 2023-01-04
          program call               : /home/student7/miniconda3/envs/ga-formed/bin/xtb xtb.xyz --input xcontrol --chrg 0 --uhf 0 --acc 1.0 --gfn 2 --opt tight
          :  Hamiltonian                  GFN2-xTB          :
 * total energy  :  -110.2267022 Eh     change        0.3603915E-08 Eh
 * total energy  :  -110.2568954 Eh     change       -0.3019317E-01 Eh
 * total energy  :  -110.2688366 Eh     change       -0.1194117E-01 Eh
 * total energy  :  -110.2718237 Eh     change       -0.2987106E-02 Eh
 * total energy  :  -110.2732394 Eh     change       -0.1415702E-02 Eh
 * total energy  :  -110.2748285 Eh     change       -0.1589063E-02 Eh
 * total energy  :  -110.2757290 Eh     change       -0.9005559E-03 Eh
 * total energy  :  -110.2768159 Eh     change       -0.1086842E-02 Eh
 * total energy  :  -110.2777720 Eh     change       -0.9561117E-03 Eh
 * total energy  :  -110.2788117 Eh     change       -0.1039723E-02 Eh
 * total energy  :  -110.3147579 Eh     change       -0.1925438E-04 Eh
 * total energy  :  -110.3147770 Eh     change       -0.1913462E-04 Eh
 * total energy  :  -110.3147960 Eh     change       -0.1902663E-04 Eh
 * total energy  :  -110.3148150 Eh     change       -0.1894348E-04 Eh
 * total energy  :  -110.3148339 Eh     change       -0.1888279E-04 Eh
 * total energy  :  -110.3148527 Eh     change       -0.1880458E-04 Eh
 * total energy  :  -110.3148714 Eh     change       -0.1872338E-04 Eh
 * total energy  :  -110.3148901 Eh     change       -0.1866892E-04 Eh
 * total energy  :  -110.3149087 Eh     change       -0.1860456E-04 Eh
 * total energy  :  -110.3149272 Eh     change       -0.1855168E-04 Eh

 final structure:
================
53
 xtb: 6.5.1 (fef0646)
C            1.45722794410511       -4.99818561760195       -1.11120932411253
O            0.92247110963825       -3.70132755932899       -1.26508104804783
C            1.74512545965491       -2.65885476915341       -1.10684543138316
C            3.11258243500884       -2.68013805144727       -0.81015949960797
C            3.67447703316223       -1.42168944994665       -0.69123418325412
C            5.01642773724983       -1.09110539904837       -0.29342962463688
C            5.89027409064210       -2.00885160287883        0.20829993190801
N            7.12396789007969       -1.60089826848560        0.62770849756735
C            8.12371551531747       -2.33054555121005        1.17959100758852
C            9.17134088340530       -1.48994369797991        1.46802595916271
C            8.79963627236804       -0.19370054111863        1.07799996345970
C            7.52473981018652       -0.27697351246842        0.55764980041901
C            6.64041280572327        0.73191607441316        0.01822576370540
O            6.88763911748539        1.91255053885910       -0.09870432219602
N            5.41166649271575        0.22683101207375       -0.38085074677712
S            2.53713655530656       -0.16007021298012       -1.01362689459989
C            1.23193080841581       -1.35742389714514       -1.22829943459930
N           -0.03199201247821       -1.04131133879725       -1.35584050307450
N           -0.36004429864944        0.17469934106923       -1.55149329287041
C           -1.64132170793202        0.57283105678453       -1.33234157024560
C           -2.10945086316460        1.72972952365506       -1.97682467051420
C           -3.31912253679390        2.28344227677965       -1.62827132097927
C           -4.10204530651189        1.74722116315581       -0.60260052143859
C           -5.36769523756646        2.39855189860190       -0.23643988568209
C           -5.36911288323794        3.75219639983640        0.07785431322908
C           -6.53790336993053        4.39315418412889        0.44816337617523
Cl          -6.51858823301490        6.06490030432270        0.84655830955284
C           -7.74462853646055        3.70176510146626        0.51124480677225
O           -8.88266988943886        4.32031556483782        0.88271181177219
C           -7.75652439482642        2.34090599095054        0.17016330796935
O           -8.95568852126416        1.70265500896315        0.22519700090589
C           -6.57995326212240        1.71021230421618       -0.20598484758258
Cl          -6.67086963540965        0.03150073815561       -0.67073973943487
C           -3.62666999941291        0.59641208521927        0.03848417874296
N           -4.31402622888660        0.03220978121311        1.17555403375212
O           -4.20305089970265       -1.16121000839924        1.35520442726082
O           -4.92238279052710        0.78745437183921        1.90348223596279
C           -2.43785922863967       -0.00241833672816       -0.33178743404257
H            2.24321352556427       -5.19393198705876       -1.84684922172090
H            0.62600707978504       -5.68009085106103       -1.27890910543490
H            1.85354987973526       -5.14834710336852       -0.10264937342251
H            3.67760388032493       -3.58305839955790       -0.67433990111953
H            5.65131631059545       -3.05150429879562        0.32012588752672
H            8.02416695623129       -3.38745702168256        1.33095696726066
H           10.10319360064448       -1.77593889699144        1.91329884847783
H            9.37898168585083        0.70267919618369        1.16172147318402
H            4.75410728568466        0.90257008775292       -0.75074211903624
H           -1.50455803906354        2.16741043351239       -2.75512184120675
H           -3.68246728679481        3.15753404130938       -2.14662409851749
H           -4.44298776442882        4.30298683185660        0.06431934455578
H           -9.59637965658077        3.66597480733718        0.88268120655567
H           -8.81441185715696        0.76670248081717        0.01703609866875
H           -2.09050772504143       -0.88233822608233        0.18942540334720

          :  Hamiltonian                  GFN2-xTB          :
         :: total energy            -110.314945727115 Eh    ::
         :: gradient norm              0.000339493525 Eh/a0 ::
         :: HOMO-LUMO gap              0.736619143380 eV    ::
         :: SCC energy              -111.624621725913 Eh    ::
         :: -> dispersion             -0.071779523470 Eh    ::
         :: repulsion energy           1.310214103478 Eh    ::

    * Orbital Energies and Occupations

         #    Occupation            Energy/Eh            Energy/eV
      -------------------------------------------------------------
         1        2.0000           -1.0747738             -29.2461
       ...           ...                  ...                  ...
        84        2.0000           -0.4432637             -12.0618
        85        2.0000           -0.4397896             -11.9673
        86        2.0000           -0.4342883             -11.8176
        87        2.0000           -0.4294889             -11.6870
        88        2.0000           -0.4199922             -11.4286
        89        2.0000           -0.4175658             -11.3625
        90        2.0000           -0.4111621             -11.1883
        91        2.0000           -0.4088924             -11.1265
        92        2.0000           -0.4040986             -10.9961
        93        2.0000           -0.3996695             -10.8756
        94        2.0000           -0.3915081             -10.6535
        95        2.0000           -0.3862969             -10.5117
        96        2.0000           -0.3614570              -9.8357 (HOMO)
        97        0.0000           -0.3343868              -9.0991 (LUMO)
        98                         -0.3142016              -8.5499
        99                         -0.2800949              -7.6218
       100                         -0.2564447              -6.9782
       101                         -0.2542275              -6.9179
       102                         -0.2463592              -6.7038
       103                         -0.2433647              -6.6223
       104                         -0.2354419              -6.4067
       105                         -0.2245912              -6.1114
       106                         -0.2115702              -5.7571
       107                         -0.1832128              -4.9855
       ...                                ...                  ...
       182                          0.7126636              19.3926
      -------------------------------------------------------------
                  HL-Gap            0.0270703 Eh            0.7366 eV

     #   Z          covCN         q      C6AA      α(0)
     1   6 C        3.651     0.028    20.412     6.489
     2   8 O        1.705    -0.223    17.704     5.681
     3   6 C        3.003     0.144    24.851     8.177
     4   6 C        3.070    -0.088    30.137     9.001
     5   6 C        2.989     0.020    27.554     8.611
     6   6 C        2.932     0.058    26.709     8.476
     7   6 C        2.857    -0.019    28.478     8.747
     8   7 N        2.862     0.043    20.483     6.722
     9   6 C        3.032    -0.022    28.513     8.759
    10   6 C        3.053    -0.051    29.217     8.865
    11   6 C        3.038    -0.046    29.096     8.847
    12   6 C        3.108    -0.007    28.039     8.676
    13   6 C        2.755     0.271    22.422     7.754
    14   8 O        0.859    -0.422    22.129     6.307
    15   7 N        2.708    -0.149    24.221     7.309
    16  16 S        2.271    -0.036   142.537    20.094
    17   6 C        2.957     0.063    26.577     8.456
    18   7 N        1.949    -0.090    23.739     7.225
    19   7 N        1.959    -0.134    24.665     7.365
    20   6 C        2.930     0.086    26.082     8.375
    21   6 C        2.922    -0.032    28.796     8.800
    22   6 C        2.924    -0.030    28.749     8.793
    23   6 C        2.974     0.026    27.424     8.590
    24   6 C        2.999     0.004    27.931     8.669
    25   6 C        2.964    -0.055    29.372     8.890
    26   6 C        2.883     0.071    26.409     8.425
    27  17 Cl       0.973    -0.128   103.157    15.539
    28   6 C        2.886     0.126    25.246     8.237
    29   8 O        1.660    -0.351    19.923     6.026
    30   6 C        2.884     0.106    25.645     8.302
    31   8 O        1.659    -0.383    20.513     6.114
    32   6 C        2.886     0.051    26.844     8.494
    33  17 Cl       0.958    -0.168   104.406    15.632
    34   6 C        2.914     0.003    27.953     8.670
    35   7 N        2.761     0.553    13.446     5.446
    36   8 O        0.930    -0.385    21.342     6.196
    37   8 O        0.929    -0.390    21.451     6.211
    38   6 C        2.922    -0.035    28.863     8.810
    39   1 H        0.924     0.053     2.286     2.364
    40   1 H        0.925     0.080     1.980     2.201
    41   1 H        0.924     0.053     2.282     2.362
    42   1 H        0.926     0.050     2.316     2.380
    43   1 H        0.926     0.060     2.195     2.317
    44   1 H        0.926     0.043     2.412     2.429
    45   1 H        0.926     0.046     2.373     2.409
    46   1 H        0.926     0.059     2.211     2.325
    47   1 H        0.860     0.202     1.094     1.639
    48   1 H        0.926     0.066     2.131     2.283
    49   1 H        0.926     0.059     2.216     2.328
    50   1 H        0.926     0.080     1.981     2.201
    51   1 H        0.805     0.333     0.629     1.246
    52   1 H        0.805     0.327     0.646     1.262
    53   1 H        0.926     0.079     1.991     2.207

Wiberg/Mayer (AO) data.
largest (>0.10) Wiberg bond orders for each atom

     #   Z sym  total        # sym  WBO       # sym  WBO       # sym  WBO
 ---------------------------------------------------------------------------
     1   6 C    3.931 --    40 H    0.978    41 H    0.976    39 H    0.976
                             2 O    0.972
     2   8 O    2.297 --     3 C    1.120     1 C    0.972
     3   6 C    3.918 --     4 C    1.320    17 C    1.273     2 O    1.120
     4   6 C    3.962 --     5 C    1.432     3 C    1.320    42 H    0.959
     5   6 C    3.932 --     4 C    1.432    16 S    1.181     6 C    1.137
     6   6 C    3.970 --     7 C    1.524    15 N    1.140     5 C    1.137
     7   6 C    3.918 --     6 C    1.524     8 N    1.158    43 H    0.961
     8   7 N    3.693 --     9 C    1.217     7 C    1.158    12 C    1.112
     9   6 C    3.930 --    10 C    1.516     8 N    1.217    44 H    0.969
                            12 C    0.108
    10   6 C    3.964 --     9 C    1.516    11 C    1.349    45 H    0.973
    11   6 C    3.959 --    12 C    1.467    10 C    1.349    46 H    0.972
    12   6 C    3.933 --    11 C    1.467     8 N    1.112    13 C    1.082
                             9 C    0.108
    13   6 C    3.954 --    14 O    1.672    15 N    1.113    12 C    1.082
    14   8 O    2.015 --    13 C    1.672    15 N    0.155
    15   7 N    3.509 --     6 C    1.140    13 C    1.113    47 H    0.919
                            14 O    0.155
    16  16 S    2.596 --     5 C    1.181    17 C    0.996
    17   6 C    3.929 --    18 N    1.398     3 C    1.273    16 S    0.996
    18   7 N    3.174 --    19 N    1.513    17 C    1.398
    19   7 N    3.111 --    18 N    1.513    20 C    1.205
    20   6 C    3.975 --    38 C    1.306    21 C    1.299    19 N    1.205
    21   6 C    3.957 --    22 C    1.492    20 C    1.299    48 H    0.966
    22   6 C    3.986 --    21 C    1.492    23 C    1.363    49 H    0.966
    23   6 C    3.953 --    22 C    1.363    34 C    1.325    24 C    1.042
    24   6 C    3.984 --    25 C    1.385    32 C    1.342    23 C    1.042
    25   6 C    3.976 --    26 C    1.401    24 C    1.385    50 H    0.962
    26   6 C    3.925 --    25 C    1.401    28 C    1.337    27 Cl   0.997
    27  17 Cl   1.139 --    26 C    0.997
    28   6 C    3.947 --    26 C    1.337    30 C    1.284    29 O    1.112
    29   8 O    2.159 --    28 C    1.112    51 H    0.865
    30   6 C    3.947 --    32 C    1.365    28 C    1.284    31 O    1.083
    31   8 O    2.126 --    30 C    1.083    52 H    0.859
    32   6 C    3.900 --    30 C    1.365    24 C    1.342    33 Cl   0.962
    33  17 Cl   1.124 --    32 C    0.962
    34   6 C    3.957 --    38 C    1.420    23 C    1.325    35 N    0.953
    35   7 N    3.912 --    36 O    1.456    37 O    1.454    34 C    0.953
    36   8 O    1.935 --    35 N    1.456    37 O    0.361
    37   8 O    1.935 --    35 N    1.454    36 O    0.361
    38   6 C    3.964 --    34 C    1.420    20 C    1.306    53 H    0.959
    39   1 H    0.995 --     1 C    0.976
    40   1 H    0.993 --     1 C    0.978
    41   1 H    0.995 --     1 C    0.976
    42   1 H    0.997 --     4 C    0.959
    43   1 H    0.996 --     7 C    0.961
    44   1 H    0.998 --     9 C    0.969
    45   1 H    0.997 --    10 C    0.973
    46   1 H    0.996 --    11 C    0.972
    47   1 H    0.959 --    15 N    0.919
    48   1 H    0.995 --    21 C    0.966
    49   1 H    0.995 --    22 C    0.966
    50   1 H    0.994 --    25 C    0.962
    51   1 H    0.889 --    29 O    0.865
    52   1 H    0.893 --    31 O    0.859
    53   1 H    0.993 --    38 C    0.959
 ---------------------------------------------------------------------------

molecular dipole:
                 x           y           z       tot (Debye)
 q only:        1.731      -2.450      -1.258
   full:        1.581      -3.535      -1.300      10.382

           -------------------------------------------------
          | TOTAL ENERGY             -110.314945727115 Eh   |
          | GRADIENT NORM               0.000339493525 Eh/α |
          | HOMO-LUMO GAP               0.736619143380 eV   |
           -------------------------------------------------

 * finished run on 2024/05/30 at 17:45:01.355
