   * xtb version 6.5.1 (fef0646) compiled by 'conda@b96dff2e9fd6' on 2023-01-04
          program call               : /home/student7/miniconda3/envs/ga-formed/bin/xtb xtb.xyz --input xcontrol --chrg 0 --uhf 0 --acc 1.0 --gfn 2 --opt tight
          :  Hamiltonian                  GFN2-xTB          :
 * total energy  :   -95.2508504 Eh     change       -0.3980460E-09 Eh
 * total energy  :   -95.2672375 Eh     change       -0.1638714E-01 Eh
 * total energy  :   -95.2736156 Eh     change       -0.6378040E-02 Eh
 * total energy  :   -95.2761407 Eh     change       -0.2525136E-02 Eh
 * total energy  :   -95.2785223 Eh     change       -0.2381553E-02 Eh
 * total energy  :   -95.2806409 Eh     change       -0.2118640E-02 Eh
 * total energy  :   -95.2830672 Eh     change       -0.2426285E-02 Eh
 * total energy  :   -95.2854339 Eh     change       -0.2366698E-02 Eh
 * total energy  :   -95.2871885 Eh     change       -0.1754608E-02 Eh
 * total energy  :   -95.2884948 Eh     change       -0.1306307E-02 Eh
 * total energy  :   -95.3040056 Eh     change       -0.5093287E-05 Eh
 * total energy  :   -95.3040136 Eh     change       -0.7935513E-05 Eh
 * total energy  :   -95.3040205 Eh     change       -0.6988412E-05 Eh
 * total energy  :   -95.3040265 Eh     change       -0.5947362E-05 Eh
 * total energy  :   -95.3040318 Eh     change       -0.5346541E-05 Eh
 * total energy  :   -95.3040336 Eh     change       -0.1801556E-05 Eh
 * total energy  :   -95.3040350 Eh     change       -0.1386600E-05 Eh
 * total energy  :   -95.3040360 Eh     change       -0.1005657E-05 Eh
 * total energy  :   -95.3040369 Eh     change       -0.9046170E-06 Eh
   *** GEOMETRY OPTIMIZATION CONVERGED AFTER 254 ITERATIONS ***

 final structure:
================
54
 xtb: 6.5.1 (fef0646)
C            7.48081670557522       -0.52567703079013        2.52637841311311
C            6.49989627004195       -0.29584522468876        1.42070969870757
C            6.49219396955265        0.89077237839967        0.69814140043065
C            5.57616261006818        1.09998492892969       -0.31585685473119
C            4.63427301584534        0.12177667222933       -0.61345895521377
N            3.75156578759454        0.33798657103641       -1.69241239088188
N            2.51462172742188       -0.00050666650753       -1.88559722572654
C            1.63429060224653       -0.44461077448774       -1.06813383896667
C            1.57557741032346       -0.58297179271313        0.36815402681995
O            0.58475938759420       -0.98037351956637        0.94050247968895
S            0.09055568711345       -0.98037919410258       -1.89588237901626
O           -0.02944265257170       -2.39688094317676       -1.66231081092920
O            0.16022739149935       -0.55377445383656       -3.26586867699940
C           -1.22400089415787       -0.02406098364089       -1.11681628211797
C           -1.17882907019882        1.31373492574118       -1.46853610651337
C           -2.11437339958641        2.19662870675562       -0.96929631985579
C           -3.12190923902409        1.73561412857979       -0.12725081852365
C           -4.17205241269176        2.70974026493460        0.35196640472455
C           -4.85676284132106        2.28896759477376        1.64975289658650
S           -6.35442505442988        1.26871273411031        1.30083036686975
S           -6.18584018201585        1.31399056070132       -0.75918644019310
C           -5.24914848205218        2.87154148205102       -0.72565673787843
C           -3.16020340685263        0.39042854634891        0.20566106445581
C           -2.19890366232162       -0.50644251191034       -0.25587815163118
C           -2.23883514096825       -1.94509750735381        0.17001838312218
C           -3.21499897281014       -2.78126125414347       -0.67041214531231
S           -4.97804007016044       -2.39960685987501       -0.39273124865994
C           -2.51561167607140       -2.10303071342885        1.65472391780230
O           -2.69826917650519       -1.22235479475027        2.45008880417722
O           -2.50488134195000       -3.39184408046999        2.00488981958325
C            4.64348920678515       -1.08030721844168        0.08934717836266
C            5.56874844931011       -1.27820683723470        1.09393567249307
H            8.23756372898192        0.25381070837105        2.54638181637960
H            6.96651915873571       -0.53188894860327        3.48711247537846
H            7.97076639210838       -1.49019633841759        2.40774773658584
H            7.21346045281261        1.66101813612041        0.92755155443642
H            5.58455473820226        2.02301671932867       -0.87659581031353
H            4.15860266519519        0.77783512719466       -2.51199408983274
H            2.45480729476410       -0.22649562049424        0.93983747094344
H           -0.40701332194958        1.63726032472875       -2.14944135561656
H           -2.06843685109492        3.24257608699940       -1.23630906834413
H           -3.69433157126335        3.68382981914881        0.50903006241240
H           -4.19390733849119        1.71228496014174        2.29155452990981
H           -5.22335560734698        3.15846261762613        2.19524428843293
H           -5.93212636740881        3.68860640593032       -0.48957334833434
H           -4.82570114664145        3.01255937219863       -1.71737506108931
H           -3.93349600690600        0.01285515869870        0.85342874100878
H           -1.25095791708249       -2.38717351126490        0.00058790410420
H           -3.11538227840416       -3.83152740609034       -0.40112616790825
H           -2.99047967180741       -2.65842309259580       -1.72868730236529
H           -5.00304618250744       -1.22722204672609       -1.02305535128980
H           -2.67599002140732       -3.48244625503425        2.95551894836162
H            3.94288249626233       -1.86046863239361       -0.16812646048802
H            5.57441680997507       -2.21491571838046        1.63072134383305

          :  Hamiltonian                  GFN2-xTB          :
         :: total energy             -95.304036936793 Eh    ::
         :: gradient norm              0.000370848235 Eh/a0 ::
         :: HOMO-LUMO gap              0.673425730221 eV    ::
         :: SCC energy               -96.456467035600 Eh    ::
         :: -> dispersion             -0.076481687580 Eh    ::
         :: repulsion energy           1.151170241613 Eh    ::

    * Orbital Energies and Occupations

         #    Occupation            Energy/Eh            Energy/eV
      -------------------------------------------------------------
         1        2.0000           -0.7696144             -20.9423
       ...           ...                  ...                  ...
        73        2.0000           -0.4422984             -12.0356
        74        2.0000           -0.4379966             -11.9185
        75        2.0000           -0.4360713             -11.8661
        76        2.0000           -0.4299896             -11.7006
        77        2.0000           -0.4251692             -11.5694
        78        2.0000           -0.4204493             -11.4410
        79        2.0000           -0.4155637             -11.3081
        80        2.0000           -0.4095611             -11.1447
        81        2.0000           -0.4068436             -11.0708
        82        2.0000           -0.3991094             -10.8603
        83        2.0000           -0.3874452             -10.5429
        84        2.0000           -0.3591672              -9.7734
        85        2.0000           -0.3465929              -9.4313 (HOMO)
        86        0.0000           -0.3218450              -8.7578 (LUMO)
        87                         -0.2609916              -7.1019
        88                         -0.2564887              -6.9794
        89                         -0.2527217              -6.8769
        90                         -0.2496195              -6.7925
        91                         -0.2432536              -6.6193
        92                         -0.2291075              -6.2343
        93                         -0.2104888              -5.7277
        94                         -0.2075401              -5.6475
        95                         -0.1878778              -5.1124
        96                         -0.1571796              -4.2771
       ...                                ...                  ...
       170                          1.2253654              33.3439
      -------------------------------------------------------------
                  HL-Gap            0.0247479 Eh            0.6734 eV

     #   Z          covCN         q      C6AA      α(0)
     1   6 C        3.758    -0.115    22.752     6.800
     2   6 C        2.965     0.024    27.469     8.597
     3   6 C        2.925    -0.035    28.866     8.811
     4   6 C        2.921    -0.047    29.169     8.857
     5   6 C        2.905     0.041    27.071     8.531
     6   7 N        2.772    -0.018    21.596     6.902
     7   7 N        1.965    -0.108    24.103     7.281
     8   6 C        2.874    -0.055    29.362     8.883
     9   6 C        2.802     0.190    23.932     8.014
    10   8 O        0.858    -0.354    20.777     6.111
    11  16 S        3.876     0.968   107.579    17.457
    12   8 O        0.860    -0.540    24.688     6.662
    13   8 O        0.860    -0.533    24.533     6.641
    14   6 C        2.972    -0.079    29.970     8.980
    15   6 C        3.007    -0.034    28.835     8.809
    16   6 C        2.925    -0.037    28.918     8.819
    17   6 C        2.972     0.015    27.676     8.629
    18   6 C        3.951    -0.012    20.728     6.469
    19   6 C        3.804    -0.017    20.869     6.504
    20  16 S        1.991    -0.115   145.860    20.327
    21  16 S        2.018    -0.120   146.103    20.344
    22   6 C        3.824    -0.004    20.639     6.465
    23   6 C        2.931    -0.031    28.765     8.796
    24   6 C        2.981     0.033    27.258     8.564
    25   6 C        3.874    -0.057    21.543     6.600
    26   6 C        3.797     0.002    20.544     6.454
    27  16 S        1.908    -0.281   153.187    20.831
    28   6 C        2.692     0.375    20.654     7.438
    29   8 O        0.856    -0.405    21.776     6.256
    30   8 O        1.660    -0.369    20.248     6.075
    31   6 C        2.918    -0.039    28.961     8.825
    32   6 C        2.926    -0.035    28.868     8.811
    33   1 H        0.925     0.050     2.321     2.382
    34   1 H        0.925     0.058     2.218     2.329
    35   1 H        0.925     0.056     2.249     2.345
    36   1 H        0.926     0.047     2.363     2.404
    37   1 H        0.926     0.042     2.424     2.435
    38   1 H        0.860     0.194     1.138     1.671
    39   1 H        0.922     0.027     2.630     2.536
    40   1 H        0.926     0.053     2.277     2.360
    41   1 H        0.926     0.042     2.426     2.435
    42   1 H        0.924     0.050     2.320     2.382
    43   1 H        0.925     0.070     2.082     2.256
    44   1 H        0.925     0.051     2.308     2.376
    45   1 H        0.925     0.054     2.265     2.354
    46   1 H        0.925     0.056     2.251     2.346
    47   1 H        0.926     0.090     1.877     2.142
    48   1 H        0.924     0.117     1.634     1.999
    49   1 H        0.925     0.076     2.016     2.220
    50   1 H        0.925     0.058     2.225     2.333
    51   1 H        0.923     0.169     1.270     1.763
    52   1 H        0.804     0.333     0.630     1.246
    53   1 H        0.926     0.046     2.367     2.406
    54   1 H        0.926     0.050     2.314     2.379

Wiberg/Mayer (AO) data.
largest (>0.10) Wiberg bond orders for each atom

     #   Z sym  total        # sym  WBO       # sym  WBO       # sym  WBO
 ---------------------------------------------------------------------------
     1   6 C    3.994 --     2 C    1.031    33 H    0.984    35 H    0.973
                            34 H    0.966
     2   6 C    3.974 --     3 C    1.407    32 C    1.393     1 C    1.031
     3   6 C    3.990 --     4 C    1.450     2 C    1.407    36 H    0.968
                            31 C    0.103
     4   6 C    3.981 --     3 C    1.450     5 C    1.379    37 H    0.968
                            32 C    0.104
     5   6 C    3.959 --     4 C    1.379    31 C    1.368     6 N    1.024
     6   7 N    3.565 --     7 N    1.279     5 C    1.024    38 H    0.924
                             8 C    0.155
     7   7 N    3.130 --     8 C    1.616     6 N    1.279
     8   6 C    3.947 --     7 N    1.616     9 C    1.108    11 S    0.730
                             6 N    0.155
     9   6 C    3.938 --    10 O    1.806     8 C    1.108    39 H    0.922
    10   8 O    2.059 --     9 C    1.806
    11  16 S    4.921 --    13 O    1.676    12 O    1.645    14 C    0.750
                             8 C    0.730
    12   8 O    1.963 --    11 S    1.645    13 O    0.107
    13   8 O    1.966 --    11 S    1.676    12 O    0.107
    14   6 C    3.964 --    15 C    1.411    24 C    1.398    11 S    0.750
    15   6 C    3.988 --    16 C    1.454    14 C    1.411    40 H    0.964
                            23 C    0.106
    16   6 C    3.988 --    15 C    1.454    17 C    1.394    41 H    0.967
                            24 C    0.103
    17   6 C    3.985 --    23 C    1.426    16 C    1.394    18 C    0.999
    18   6 C    3.994 --    19 C    1.000    17 C    0.999    22 C    0.982
                            42 H    0.949
    19   6 C    3.977 --    18 C    1.000    44 H    0.977    20 S    0.973
                            43 H    0.971
    20  16 S    2.198 --    21 S    1.148    19 C    0.973
    21  16 S    2.226 --    20 S    1.148    22 C    0.989
    22   6 C    3.980 --    21 S    0.989    18 C    0.982    45 H    0.974
                            46 H    0.970
    23   6 C    3.984 --    17 C    1.426    24 C    1.391    47 H    0.953
                            15 C    0.106
    24   6 C    3.986 --    14 C    1.398    23 C    1.391    25 C    1.007
                            16 C    0.103
    25   6 C    3.989 --    24 C    1.007    26 C    0.966    28 C    0.957
                            48 H    0.910
    26   6 C    3.976 --    27 S    1.001    50 H    0.974    49 H    0.968
                            25 C    0.966
    27  16 S    2.025 --    26 C    1.001    51 H    0.953
    28   6 C    3.915 --    29 O    1.767    30 O    1.140    25 C    0.957
    29   8 O    2.047 --    28 C    1.767    30 O    0.173
    30   8 O    2.207 --    28 C    1.140    52 H    0.864    29 O    0.173
    31   6 C    3.991 --    32 C    1.464     5 C    1.368    53 H    0.966
                             3 C    0.103
    32   6 C    3.991 --    31 C    1.464     2 C    1.393    54 H    0.968
                             4 C    0.104
    33   1 H    0.997 --     1 C    0.984
    34   1 H    0.995 --     1 C    0.966
    35   1 H    0.996 --     1 C    0.973
    36   1 H    0.997 --     3 C    0.968
    37   1 H    0.998 --     4 C    0.968
    38   1 H    0.962 --     6 N    0.924
    39   1 H    0.999 --     9 C    0.922
    40   1 H    0.996 --    15 C    0.964
    41   1 H    0.997 --    16 C    0.967
    42   1 H    0.997 --    18 C    0.949
    43   1 H    0.995 --    19 C    0.971
    44   1 H    0.997 --    19 C    0.977
    45   1 H    0.996 --    22 C    0.974
    46   1 H    0.997 --    22 C    0.970
    47   1 H    0.991 --    23 C    0.953
    48   1 H    0.986 --    25 C    0.910
    49   1 H    0.993 --    26 C    0.968
    50   1 H    0.997 --    26 C    0.974
    51   1 H    0.971 --    27 S    0.953
    52   1 H    0.888 --    30 O    0.864
    53   1 H    0.998 --    31 C    0.966
    54   1 H    0.997 --    32 C    0.968
 ---------------------------------------------------------------------------

molecular dipole:
                 x           y           z       tot (Debye)
 q only:        3.393       2.169       0.782
   full:        4.391       2.586       0.939      13.171

           -------------------------------------------------
          | TOTAL ENERGY              -95.304036936793 Eh   |
          | GRADIENT NORM               0.000370848235 Eh/α |
          | HOMO-LUMO GAP               0.673425730221 eV   |
           -------------------------------------------------

 * finished run on 2024/05/30 at 17:35:15.937
